# vtk DataFile Version 3.0
vtk output
ASCII
DATASET RECTILINEAR_GRID
DIMENSIONS 50 50 1
X_COORDINATES 50 float
-10.0 -9.591837 -9.183674 -8.775511 -8.367348 -7.9591846 -7.5510216 -7.1428585 -6.7346954
-6.3265324 -5.9183693 -5.510206 -5.102043 -4.69388 -4.285717 -3.8775537 -3.4693904 -3.061227
-2.6530638 -2.2449005 -1.8367372 -1.4285738 -1.0204105 -0.6122472 -0.20408395 0.20407933 0.6122426
1.0204059 1.4285692 1.8367325 2.2448957 2.653059 3.0612223 3.4693856 3.877549 4.2857122
4.6938753 5.1020384 5.5102015 5.9183645 6.3265276 6.7346907 7.1428537 7.551017 7.95918
8.367343 8.775506 9.183669 9.591832 10.0 
Y_COORDINATES 50 float
-10.0 -9.591837 -9.183674 -8.775511 -8.367348 -7.9591846 -7.5510216 -7.1428585 -6.7346954
-6.3265324 -5.9183693 -5.510206 -5.102043 -4.69388 -4.285717 -3.8775537 -3.4693904 -3.061227
-2.6530638 -2.2449005 -1.8367372 -1.4285738 -1.0204105 -0.6122472 -0.20408395 0.20407933 0.6122426
1.0204059 1.4285692 1.8367325 2.2448957 2.653059 3.0612223 3.4693856 3.877549 4.2857122
4.6938753 5.1020384 5.5102015 5.9183645 6.3265276 6.7346907 7.1428537 7.551017 7.95918
8.367343 8.775506 9.183669 9.591832 10.0 
Z_COORDINATES 1 float
0
CELL_DATA 2401
POINT_DATA 2500
VECTORS grad float
-0.0996454 0.008413974 0.0 -0.0932593 0.03609298 0.0 -0.097682245 0.021405121 0.0
-0.04603355 0.0887745 0.0 0.027512936 -0.09614073 0.0 0.06881669 0.07255524 0.0
0.035003252 0.09367376 0.0 0.016771566 -0.09858354 0.0 0.09866443 -0.016288942 0.0
0.015020214 -0.09886553 0.0 -0.012454941 -0.09922134 0.0 0.08015459 0.05979333 0.0
0.06915164 -0.07223608 0.0 0.07393935 -0.06732735 0.0 -0.08204426 0.057172902 0.0
0.025950897 0.09657407 0.0 0.0960982 -0.0276611 0.0 0.014479602 -0.098946154 0.0
-0.08246044 -0.056570984 0.0 0.002847893 -0.09995944 0.0 0.031867716 0.09478634 0.0
0.082292646 0.05681479 0.0 0.091628015 -0.040053803 0.0 0.044766318 0.08942023 0.0
0.09908616 0.013488299 0.0 0.09999202 -0.0012634298 0.0 0.07116832 -0.070250064 0.0
-0.09933975 -0.011472269 0.0 -0.048986804 -0.08717966 0.0 0.054374315 -0.08392517 0.0
0.090055965 -0.04347326 0.0 -0.099380754 -0.011111497 0.0 0.011506994 -0.099335745 0.0
-0.014917992 -0.098881006 0.0 -0.027975474 0.09600715 0.0 -0.05781072 0.081596084 0.0
-0.017724218 0.09841673 0.0 -0.025550833 0.096680686 0.0 0.009070781 -0.09958776 0.0
0.09581731 0.028618941 0.0 -0.096513085 -0.026176808 0.0 -0.09356098 0.03530359 0.0
-0.08953801 0.044530272 0.0 0.07288572 0.068466574 0.0 0.06584536 -0.07526213 0.0
0.093647815 0.035072595 0.0 -0.07304419 -0.06829749 0.0 -0.066070534 -0.07506453 0.0
-0.09963039 0.008589816 0.0 0.1 0.0 0.0 -0.09322932 -0.03617034 0.0
-0.09998172 -0.0019124696 0.0 0.093262106 -0.036085725 0.0 0.085146934 0.052440442 0.0
0.021821674 0.09759004 0.0 -0.016473515 -0.09863379 0.0 -0.0072186864 -0.09973911 0.0
0.05977512 -0.08016817 0.0 0.041530967 0.090968005 0.0 -0.09892288 0.014637749 0.0
0.03021865 0.09532489 0.0 -0.05159213 -0.0856636 0.0 0.09259406 -0.03776693 0.0
0.08502555 -0.052637022 0.0 -0.027579522 -0.09612164 0.0 0.099993534 0.0011371141 0.0
0.0025148138 -0.099968374 0.0 -0.09688072 -0.02478158 0.0 -0.0997974 0.0063623707 0.0
-0.08784228 0.047788437 0.0 -0.07526044 0.0658473 0.0 -0.09866911 0.016260583 0.0
0.09999754 7.005495E-4 0.0 0.04859593 0.08739814 0.0 0.09647774 0.026306752 0.0
0.084990285 -0.052693944 0.0 0.090247706 -0.043073803 0.0 -0.09817304 0.019027768 0.0
-0.06761243 -0.07367876 0.0 0.058229238 0.08129795 0.0 0.020346818 0.09790816 0.0
0.05140699 0.08577483 0.0 -0.099821255 -0.0059764176 0.0 0.027244067 -0.09621726 0.0
0.0627264 -0.07788067 0.0 0.012984313 -0.09915345 0.0 -0.050447013 -0.086342916 0.0
0.08010211 0.059863616 0.0 -0.028749997 0.09577807 0.0 -0.019953342 0.097989105 0.0
-0.018937876 0.09819041 0.0 -0.061956733 0.078494355 0.0 -0.03280169 0.094467185 0.0
0.012440036 -0.09922321 0.0 0.08892091 0.045750093 0.0 0.008971868 -0.09959672 0.0
-0.0848435 0.052929964 0.0 -0.069786765 0.07162268 0.0 0.0961634 0.027433574 0.0
0.027861154 0.09604039 0.0 -0.093482174 -0.03551174 0.0 -0.08051821 -0.059302766 0.0
0.015546689 0.09878411 0.0 -0.044557665 -0.08952438 0.0 -0.08490472 0.0528317 0.0
-0.093084924 -0.03654035 0.0 -0.014722295 0.09891033 0.0 -0.06892999 0.07244761 0.0
-0.07174878 0.06965711 0.0 -0.091613255 0.04008754 0.0 0.032275572 0.094648235 0.0
-0.07697327 -0.063836634 0.0 -0.09995596 -0.002967591 0.0 -0.04500041 -0.08930265 0.0
-0.09842104 -0.017700257 0.0 -0.044562995 0.08952173 0.0 -0.06876907 -0.07260038 0.0
-0.059325933 0.08050114 0.0 -0.085180245 0.05238632 0.0 -0.09402501 -0.034048464 0.0
0.057725 0.08165675 0.0 -0.05128337 -0.0858488 0.0 -0.094389044 0.03302587 0.0
0.09435411 0.03312556 0.0 0.004634754 -0.09989254 0.0 -0.04995894 0.08662623 0.0
-0.04594321 -0.08882129 0.0 -0.09979157 0.0064531527 0.0 -0.07067506 0.07074629 0.0
-0.070435375 0.070984915 0.0 -0.07378161 0.06750018 0.0 -0.024797222 0.09687672 0.0
-0.09990274 0.004409377 0.0 0.0119604515 0.09928217 0.0 -8.0142636E-4 0.09999679 0.0
-0.046447594 -0.08855858 0.0 -0.09997279 -0.0023326431 0.0 -0.024387766 -0.0969806 0.0
-0.089823686 -0.043951187 0.0 -0.08969708 0.04420899 0.0 -0.011527618 -0.099333346 0.0
-0.09524768 -0.030461118 0.0 -0.071549766 0.069861524 0.0 -0.0012868921 -0.099991724 0.0
-0.0113732 0.099351145 0.0 0.092788644 0.037286293 0.0 -0.04603544 -0.088773526 0.0
-0.09510528 -0.030902836 0.0 -0.07407093 -0.06718256 0.0 -0.06359098 0.07717634 0.0
-0.051697977 0.085599765 0.0 -0.09467823 -0.03218747 0.0 0.06070155 0.079469 0.0
-0.08314059 0.055566557 0.0 -0.07307293 -0.06826673 0.0 -0.030726636 -0.095162354 0.0
-0.08947731 -0.044652116 0.0 -0.048002627 0.087725416 0.0 0.099705584 -0.0076678763 0.0
0.002443001 0.099970154 0.0 -0.07772174 0.06292323 0.0 -0.0738916 -0.06737976 0.0
-0.091368034 0.04064336 0.0 -0.07634972 0.06458112 0.0 -0.09327298 0.036057636 0.0
-0.07334917 -0.06796985 0.0 -0.08270189 0.05621741 0.0 0.098364405 -0.018012326 0.0
0.09987966 -0.004904507 0.0 0.086709015 0.049815126 0.0 0.08807593 0.047356427 0.0
0.037576463 0.09267151 0.0 -0.024490818 0.09695463 0.0 -0.092823915 -0.037198406 0.0
0.05571102 0.08304386 0.0 0.011843821 0.099296145 0.0 -0.02429349 0.09700426 0.0
-0.07643496 -0.06448021 0.0 -0.09963862 -0.008493898 0.0 -0.008514235 -0.09963688 0.0
-0.0339443 0.09406266 0.0 -0.017717266 0.09841798 0.0 -0.06756247 0.073724575 0.0
0.09583219 0.028569052 0.0 -0.050731488 0.08617608 0.0 0.03137727 -0.09494981 0.0
0.09964647 -0.008401182 0.0 0.05940029 0.080446295 0.0 0.07114713 0.07027152 0.0
-0.09999994 1.082761E-4 0.0 -0.07703457 0.06376265 0.0 0.095920704 0.028270477 0.0
0.09421819 0.03351019 0.0 -0.09730752 -0.023048814 0.0 -0.06991039 0.071502015 0.0
-0.093358204 -0.03583638 0.0 -0.09960583 0.008870098 0.0 -0.08498056 0.052709628 0.0
-0.08566064 -0.051597048 0.0 -0.099017724 -0.013981794 0.0 0.037298054 0.09278392 0.0
0.022613661 0.09740956 0.0 -0.0050109862 0.09987437 0.0 -0.049994286 0.08660584 0.0
0.09905219 0.013735502 0.0 0.08193769 -0.05732552 0.0 0.042389683 -0.090571046 0.0
-0.0015008792 -0.099988736 0.0 0.02655809 0.09640886 0.0 0.07614574 0.064821504 0.0
0.0273182 -0.096196234 0.0 0.090923354 -0.041628648 0.0 0.06969937 0.07170773 0.0
0.05522866 0.08336543 0.0 0.090591244 0.04234652 0.0 0.013818987 0.099040575 0.0
-0.09202191 -0.039140355 0.0 -0.04712027 -0.0882025 0.0 -0.09253837 0.037903175 0.0
0.051314462 0.08583022 0.0 -0.0639804 0.07685381 0.0 0.0841661 -0.054000635 0.0
-0.03748462 0.0927087 0.0 -0.057409164 0.08187911 0.0 -0.03417411 0.09397941 0.0
0.027585102 0.096120045 0.0 0.056118358 -0.08276914 0.0 -0.032804072 -0.09446636 0.0
-0.062222015 0.07828423 0.0 0.014487611 0.098944984 0.0 0.0793966 0.060796227 0.0
0.046550803 0.08850437 0.0 -0.038768988 -0.09217899 0.0 0.021092612 0.0977502 0.0
-0.08629155 0.050534826 0.0 0.07130222 0.07011415 0.0 0.07234061 0.06904229 0.0
0.099938385 -0.0035097622 0.0 0.09953945 -0.009586326 0.0 -0.0696874 -0.07171936 0.0
0.09640955 0.026555572 0.0 0.099943936 0.0033481095 0.0 -0.045636103 -0.088979475 0.0
-0.09462679 0.032338373 0.0 -0.035373505 0.09353457 0.0 -0.09514522 -0.030779649 0.0
-0.078772016 -0.061603326 0.0 0.072536126 -0.068836845 0.0 0.008983794 0.09959564 0.0
0.04667287 -0.08844005 0.0 0.068786494 -0.07258388 0.0 0.09512708 0.030835673 0.0
0.07356764 0.067733325 0.0 -0.05037005 0.086387835 0.0 -0.09523147 -0.030511742 0.0
-0.08832934 -0.046882067 0.0 0.096610524 -0.025814865 0.0 0.042545177 0.09049811 0.0
-0.031662475 0.09485509 0.0 -0.0825712 0.05640919 0.0 0.096429005 -0.02648485 0.0
-0.068283975 0.073056825 0.0 0.07131836 0.07009774 0.0 -0.08013224 0.059823286 0.0
-0.0061126216 -0.09981301 0.0 -0.09257972 0.037802048 0.0 -0.08007049 -0.059905905 0.0
0.024414852 -0.096973784 0.0 -0.0396481 -0.091804296 0.0 0.05291275 0.08485424 0.0
0.06287293 -0.077762425 0.0 -0.09637164 -0.026692823 0.0 -0.09587237 -0.028433919 0.0
-0.08817534 0.047171067 0.0 -0.012614037 -0.09920124 0.0 0.030584738 -0.095208056 0.0
-2.1923285E-4 -0.09999976 0.0 -0.019793196 -0.09802158 0.0 0.081676096 -0.057697624 0.0
-0.08414303 -0.054036576 0.0 -0.09912849 -0.013173567 0.0 -0.032594778 -0.09453878 0.0
0.07609744 -0.064878196 0.0 0.06443422 -0.07647373 0.0 0.050068446 -0.08656298 0.0
-0.08799266 -0.04751097 0.0 -0.09731558 0.023014728 0.0 -0.008115282 0.099670164 0.0
0.09365431 0.035055246 0.0 -0.084414504 0.0536115 0.0 0.09722758 -0.023383697 0.0
-0.0955451 -0.029514989 0.0 -0.09176762 0.03973292 0.0 -0.097036324 -0.024165077 0.0
-0.057618257 -0.0817321 0.0 -0.0993427 0.011446815 0.0 -0.08987065 0.043855075 0.0
0.074662276 0.06652477 0.0 -0.099981666 0.0019149665 0.0 -0.09992596 -0.0038473592 0.0
-0.08422502 -0.053908683 0.0 -0.0072140032 0.099739455 0.0 0.09975331 0.0070198276 0.0
-0.09996178 0.0027646709 0.0 -0.07913867 -0.061131593 0.0 0.056092184 0.08278688 0.0
0.035392072 -0.09352755 0.0 0.038303103 -0.09237355 0.0 -0.099438965 -0.01057789 0.0
-0.09455809 -0.03253871 0.0 0.08288895 -0.05594123 0.0 -0.066079855 0.07505634 0.0
-0.09231448 -0.038445238 0.0 0.09647793 -0.026306063 0.0 0.09996116 -0.0027868757 0.0
-0.07312227 -0.06821388 0.0 -0.096093826 0.027676284 0.0 -0.07386248 -0.06741168 0.0
-0.08078786 0.058934905 0.0 -0.08689243 0.049494497 0.0 0.03054226 0.09522169 0.0
-0.07470679 0.066474766 0.0 -0.08958597 0.044433717 0.0 -0.09666965 -0.025592549 0.0
0.05213933 0.08533165 0.0 -0.06454524 -0.07638005 0.0 -0.030695388 0.09517244 0.0
-0.0574057 -0.08188154 0.0 -0.06723895 -0.07401975 0.0 0.06714458 -0.07410537 0.0
0.05667123 -0.08239158 0.0 -0.09799655 0.01991677 0.0 -0.055678725 -0.08306552 0.0
0.06777861 -0.07352592 0.0 0.076475225 0.06443245 0.0 -0.051985394 0.08542552 0.0
-0.09991633 0.004089914 0.0 0.043611716 -0.08998899 0.0 0.07767053 -0.06298642 0.0
0.09721274 -0.023445336 0.0 -0.0762852 0.06465732 0.0 -0.09547822 0.029730622 0.0
-0.084588245 -0.053336937 0.0 -0.019452939 -0.09808967 0.0 -0.0958825 -0.028399775 0.0
-0.048750456 0.08731204 0.0 -0.057112556 0.08208627 0.0 -0.0050661475 -0.09987159 0.0
0.008899308 -0.09960323 0.0 -0.077026054 -0.06377294 0.0 0.023835937 0.09711771 0.0
0.052680563 -0.08499858 0.0 -0.07876076 0.06161773 0.0 -0.08092151 0.058751255 0.0
-0.09868498 0.016164018 0.0 0.08353326 -0.054974493 0.0 -0.07011535 0.07130104 0.0
0.087639354 0.04815957 0.0 0.08479216 -0.053012162 0.0 -0.074511886 -0.06669317 0.0
-0.06939723 0.07200017 0.0 -0.060941394 0.07928523 0.0 -0.045446344 -0.08907654 0.0
-0.05925209 -0.080555506 0.0 -0.052318484 -0.085221924 0.0 0.06390824 -0.076913826 0.0
0.09842125 -0.017699068 0.0 0.0330783 -0.094370686 0.0 -0.094047144 -0.03398728 0.0
-0.09858098 -0.016786657 0.0 -0.037194133 0.09282562 0.0 0.06506164 -0.07594066 0.0
-0.0833358 0.055273365 0.0 -0.061159965 -0.07911675 0.0 0.03713526 0.092849195 0.0
0.09994124 -0.0034276966 0.0 0.02104226 0.09776106 0.0 0.048868783 -0.087245874 0.0
0.08675725 -0.049731072 0.0 0.03896356 -0.09209692 0.0 0.04580555 0.08889236 0.0
-0.031158412 -0.09502186 0.0 -0.058583688 -0.0810429 0.0 0.017196225 0.098510355 0.0
-0.089951165 -0.043689676 0.0 -0.09629082 -0.026982928 0.0 -0.0953851 0.030028036 0.0
-0.057364937 -0.081910096 0.0 -0.020833213 -0.09780582 0.0 0.032764126 0.094480224 0.0
0.034868505 0.093724 0.0 0.05517847 0.08339866 0.0 0.09999995 1.0373519E-4 0.0
-0.08503583 -0.05262041 0.0 0.02568622 -0.096644804 0.0 -0.06776673 -0.073536865 0.0
-0.02095154 -0.09778054 0.0 0.060398478 -0.07969959 0.0 0.0011426932 -0.099993475 0.0
-0.056811746 -0.082294755 0.0 -0.087948255 0.04759312 0.0 -0.09305263 -0.0366225 0.0
-0.06366136 0.0771183 0.0 0.047353234 0.08807764 0.0 -0.0033923953 -0.09994244 0.0
-0.058229722 -0.0812976 0.0 -0.08797354 0.047546353 0.0 0.070442565 0.07097778 0.0
0.082524315 -0.056477766 0.0 -0.016333116 -0.09865713 0.0 -0.012924616 -0.09916126 0.0
-0.08877974 0.046023443 0.0 -0.09928373 0.011947412 0.0 -0.0465116 -0.088524975 0.0
-0.05161608 0.08564917 0.0 -0.058562376 -0.08105831 0.0 0.05932957 -0.080498464 0.0
0.083719276 -0.05469079 0.0 -0.095170766 -0.030700577 0.0 -0.0011649017 0.09999322 0.0
-0.085957825 0.05110041 0.0 0.030641792 -0.09518971 0.0 -0.09559002 0.0293692 0.0
-0.09217368 0.038781602 0.0 -0.07619555 -0.06476294 0.0 -0.0960511 -0.027824214 0.0
-0.056928933 -0.08221372 0.0 0.031542476 -0.09489506 0.0 -0.015428605 0.09880262 0.0
-0.09870856 -0.016019369 0.0 0.06556784 0.07550403 0.0 0.05517716 0.08339953 0.0
0.099360384 -0.011292249 0.0 0.09992949 -0.0037546929 0.0 -0.09997288 -0.002328796 0.0
-0.07462077 0.066571325 0.0 -0.083343245 0.055262137 0.0 0.05432203 -0.08395902 0.0
-0.09841079 0.017757138 0.0 -0.07408337 0.067168854 0.0 -0.09339982 0.03572777 0.0
0.041579515 0.09094583 0.0 0.0057778326 -0.099832945 0.0 -0.09928567 0.0119313095 0.0
-0.07289645 0.06845515 0.0 0.099944346 -0.003336015 0.0 0.092322856 0.038425118 0.0
0.075427584 -0.065655775 0.0 0.084637865 0.053258162 0.0 -0.08794269 -0.047603395 0.0
-0.0751641 -0.06595724 0.0 0.085615925 0.051671214 0.0 0.06985419 0.07155692 0.0
0.059909195 -0.08006802 0.0 0.07557714 -0.06548356 0.0 0.06803149 0.073291995 0.0
0.006369745 0.09979693 0.0 -0.07335597 -0.0679625 0.0 -0.09955613 0.009411517 0.0
0.024382783 0.09698185 0.0 -0.097330116 0.02295321 0.0 -0.069419205 -0.07197898 0.0
0.08963519 -0.04433432 0.0 0.09661516 0.025797514 0.0 0.061337925 0.07897886 0.0
-0.0994935 0.010051976 0.0 5.926359E-4 -0.09999824 0.0 -0.09732581 0.022971444 0.0
-0.09968083 -0.007983249 0.0 0.009763057 0.09952228 0.0 0.057966482 -0.0814855 0.0
0.035585765 -0.09345402 0.0 -0.08441189 -0.053615607 0.0 -0.089392 0.04482266 0.0
-0.069883734 0.07152807 0.0 0.095877044 0.028418167 0.0 0.029689748 -0.09549094 0.0
-0.0067894547 0.09976926 0.0 -0.07880056 0.06156681 0.0 -0.09746046 -0.022393262 0.0
0.08024918 -0.059666306 0.0 0.09957938 0.0091622835 0.0 0.021869225 -0.09757939 0.0
0.099413216 0.010817206 0.0 -0.033123832 -0.09435471 0.0 0.03126287 -0.09498754 0.0
0.08586138 -0.0512623 0.0 0.08658251 0.05003468 0.0 -0.084183894 -0.05397288 0.0
0.064962134 -0.0760258 0.0 0.0035586227 0.09993666 0.0 -0.0934026 0.035720494 0.0
0.034835257 0.09373636 0.0 -0.07627823 0.06466553 0.0 -0.044106375 0.08974758 0.0
0.095900685 0.028338289 0.0 -0.07647535 0.06443229 0.0 -0.08398012 0.054289408 0.0
-0.018867558 -0.09820395 0.0 -0.07824653 -0.06226943 0.0 -0.09604845 0.02783334 0.0
-0.09953115 -0.009672134 0.0 -0.05542326 -0.08323619 0.0 0.044432648 0.0895865 0.0
-0.089867584 0.043861344 0.0 0.066412725 -0.07476196 0.0 -0.09819813 -0.018897813 0.0
-0.07369092 0.06759917 0.0 0.069500886 -0.07190012 0.0 0.0802381 0.059681233 0.0
-0.09077088 -0.04196007 0.0 -0.09199442 0.039204944 0.0 -0.09349143 -0.035487372 0.0
-0.09212094 -0.03890671 0.0 -0.03529797 0.0935631 0.0 -0.01995805 0.09798814 0.0
-0.0038106844 -0.099927366 0.0 0.016714456 -0.09859324 0.0 -0.022668907 -0.097396724 0.0
0.075864516 0.0651504 0.0 0.009397624 0.099557444 0.0 0.034359556 -0.093911774 0.0
0.00440068 0.09990313 0.0 0.029959405 0.095406674 0.0 -0.029149497 -0.09565724 0.0
0.0060211783 -0.099818565 0.0 -0.088739574 0.04610085 0.0 -0.050078284 0.08655729 0.0
-0.0990325 -0.01387675 0.0 0.03759085 0.09266568 0.0 -0.07654575 -0.064348646 0.0
0.05462113 0.08376475 0.0 0.077514574 0.063178256 0.0 -0.04862041 -0.08738453 0.0
-0.09394032 0.03428144 0.0 0.06319376 -0.07750193 0.0 0.0021531102 -0.09997682 0.0
0.09037968 0.042796187 0.0 -0.087342896 -0.048695162 0.0 -0.042901635 -0.09032967 0.0
-0.09999813 -6.118681E-4 0.0 -0.096830115 -0.024978569 0.0 0.09240465 -0.038228024 0.0
0.06468159 -0.07626462 0.0 0.04302364 -0.09027163 0.0 -0.08215219 -0.057017703 0.0
-0.08552409 -0.051823076 0.0 -0.0754586 -0.06562012 0.0 -0.09618195 -0.027368465 0.0
-0.070820965 0.07060022 0.0 -0.054400604 0.08390813 0.0 0.09927573 -0.012013735 0.0
0.08187694 0.057412256 0.0 0.055946123 0.08288565 0.0 0.015740698 -0.098753385 0.0
-0.09181957 0.039612707 0.0 -0.08975874 0.04408366 0.0 -0.08366608 0.054772135 0.0
-0.08824949 -0.0470322 0.0 -0.062511966 0.0780529 0.0 -0.069935896 -0.07147706 0.0
0.068651095 0.07271195 0.0 0.073625535 0.06767038 0.0 0.027588716 -0.09611901 0.0
0.09115406 -0.041121 0.0 -0.09962883 -0.008607944 0.0 -0.09990228 -0.004419813 0.0
0.086687654 0.049852286 0.0 0.012814941 0.09917549 0.0 0.09822006 -0.018783526 0.0
-0.095872074 -0.028434936 0.0 0.05813421 -0.08136593 0.0 -0.06832842 0.07301526 0.0
0.023112847 0.09729233 0.0 0.09758984 0.021822527 0.0 -0.069576494 -0.07182696 0.0
-0.069314055 -0.07208025 0.0 0.01865757 0.09824406 0.0 0.04703239 -0.088249385 0.0
-0.08895572 0.04568238 0.0 -0.074607894 0.06658576 0.0 -0.07808981 0.062465843 0.0
0.032201868 0.094673336 0.0 -0.09992277 0.003929581 0.0 -0.0976878 -0.021379763 0.0
-0.007814723 -0.099694185 0.0 -0.09999849 5.5076E-4 0.0 0.06826151 0.07307781 0.0
-0.004795152 0.09988497 0.0 0.004730337 -0.09988806 0.0 -0.07464225 -0.06654724 0.0
0.04057657 -0.09139772 0.0 0.047392596 0.08805647 0.0 0.050463136 0.0863335 0.0
0.069704615 -0.07170262 0.0 0.08317187 0.055519726 0.0 -0.094440855 0.032877427 0.0
-0.09711759 0.023836419 0.0 0.04956873 0.08685011 0.0 -0.085679844 0.05156515 0.0
-0.09890457 -0.014760968 0.0 0.01728945 0.09849404 0.0 0.008596449 0.09962982 0.0
0.08479147 0.053013276 0.0 0.012068575 0.09926908 0.0 -0.09839194 0.017861309 0.0
-0.09976931 -0.0067886324 0.0 -0.099083774 0.013505744 0.0 -0.099313915 -0.01169386 0.0
0.010795551 -0.09941557 0.0 -0.09349943 -0.03546628 0.0 -0.09300236 0.03674999 0.0
-0.061969608 0.078484185 0.0 0.093669 -0.03501598 0.0 0.029556904 0.09553214 0.0
0.07783132 -0.062787615 0.0 -0.0877824 0.047898345 0.0 0.046605572 -0.08847554 0.0
-0.011899972 0.09928943 0.0 0.0983833 0.01790886 0.0 0.07886725 0.061481357 0.0
0.036316004 -0.09317268 0.0 0.043320432 0.09012958 0.0 -0.08280818 -0.05606074 0.0
-0.08864538 -0.046281707 0.0 -0.026212795 -0.09650331 0.0 0.05362276 -0.084407344 0.0
0.032298543 -0.0946404 0.0 0.028013323 -0.09599611 0.0 0.092926055 -0.036942493 0.0
0.07576874 -0.06526177 0.0 -0.08990842 -0.04377757 0.0 0.015409206 -0.09880565 0.0
0.013197909 0.09912525 0.0 0.099998675 -5.1567855E-4 0.0 -0.08283388 -0.056022745 0.0
0.052524775 -0.085094936 0.0 -0.0714104 -0.070003964 0.0 -0.09774793 -0.021103138 0.0
-0.09492015 -0.031466898 0.0 0.0049514445 0.09987734 0.0 0.040271144 -0.0915327 0.0
-0.059485536 0.08038328 0.0 -0.042065807 0.09072193 0.0 0.09104363 0.041364934 0.0
0.074290946 0.0669392 0.0 -0.0195676 -0.09806686 0.0 -0.043285787 0.09014622 0.0
-0.068477504 0.07287546 0.0 -0.037005242 0.09290109 0.0 -0.08519757 -0.05235814 0.0
-0.09918537 -0.012738234 0.0 -0.06867622 -0.072688214 0.0 0.06768154 0.073615275 0.0
0.022482665 -0.09743988 0.0 0.039403398 0.09190959 0.0 -0.09651234 0.026179561 0.0
-6.8741036E-4 -0.09999764 0.0 -0.0465116 0.088524975 0.0 -0.052602746 0.08504676 0.0
-0.085851125 -0.051279467 0.0 -0.06844598 0.07290506 0.0 -0.09645957 0.026373316 0.0
-0.03079976 -0.09513871 0.0 -0.026692936 -0.09637161 0.0 0.045245502 -0.089178726 0.0
-0.09791627 -0.020307776 0.0 -0.09632145 0.026873393 0.0 -0.07585238 -0.06516454 0.0
-0.076629855 0.064248465 0.0 0.09186413 -0.039509267 0.0 0.08445636 -0.053545523 0.0
0.0738781 0.067394555 0.0 -0.001037423 0.09999462 0.0 -0.019404557 0.098099254 0.0
0.051858295 -0.085502736 0.0 0.0696662 0.07173995 0.0 -0.027438534 -0.096161984 0.0
-0.090027094 -0.04353301 0.0 -0.019256007 0.09812852 0.0 0.09922757 -0.01240519 0.0
0.096243985 0.027149498 0.0 -0.091623835 -0.040063363 0.0 -0.011674117 -0.09931624 0.0
-0.099870525 0.005087104 0.0 -0.054707784 0.083708175 0.0 0.08253258 -0.056465693 0.0
-0.09763242 -0.02163125 0.0 0.048251938 0.087588534 0.0 -0.014159533 -0.09899246 0.0
-9.153084E-4 -0.099995814 0.0 -0.0035646018 0.09993645 0.0 -0.08407642 -0.054140158 0.0
0.09591787 0.028280059 0.0 0.08591416 0.051173795 0.0 -0.09904217 -0.013807602 0.0
0.012889962 -0.09916577 0.0 -0.09947579 0.010225748 0.0 -0.032984115 0.09440365 0.0
0.06388174 0.07693584 0.0 -0.06961035 -0.071794145 0.0 0.00542041 -0.09985299 0.0
0.053813767 -0.0842857 0.0 0.089932896 0.043727275 0.0 0.090591244 -0.04234652 0.0
-0.09482881 -0.03174112 0.0 -0.09494121 -0.03140331 0.0 -0.09978139 -0.0066087744 0.0
0.08924245 -0.045119684 0.0 0.021287596 -0.09770792 0.0 -0.09999271 0.0012078073 0.0
0.029455472 0.095563464 0.0 -0.014707597 0.09891252 0.0 -0.093532525 -0.035378903 0.0
0.01900575 -0.0981773 0.0 -0.09999848 -5.51779E-4 0.0 -0.06808389 -0.07324332 0.0
-0.07352171 0.06778317 0.0 -0.09785265 -0.020612106 0.0 -0.0994883 0.0101033775 0.0
-0.026819525 -0.09633646 0.0 0.02052143 -0.09787171 0.0 -0.048173323 0.08763179 0.0
0.079647176 -0.06046758 0.0 0.08295768 -0.055839278 0.0 0.082032196 0.057190206 0.0
0.046816863 0.088363916 0.0 -0.064495586 -0.07642198 0.0 0.099416 0.010791643 0.0
-0.09766805 0.021469785 0.0 0.017730558 -0.09841558 0.0 0.087921076 -0.047643308 0.0
-0.084371954 -0.053678423 0.0 -0.05432243 -0.08395877 0.0 -0.043011095 0.090277605 0.0
-0.026433924 -0.096442975 0.0 0.08782611 0.047818135 0.0 -0.098468736 0.017432984 0.0
0.0042095054 0.09991136 0.0 -0.0503831 -0.08638023 0.0 -0.08815984 0.04720003 0.0
-0.011685275 0.09931493 0.0 0.09959452 0.008996262 0.0 -0.05230868 -0.085227944 0.0
-0.08623784 0.050626423 0.0 -0.09999142 0.0013101212 0.0 0.00863595 0.09962641 0.0
-0.024669945 -0.0969092 0.0 -0.061988916 0.07846894 0.0 -0.06108571 -0.079174094 0.0
0.085448615 0.051947415 0.0 -0.06602015 0.07510885 0.0 0.09075845 -0.041986953 0.0
0.058810234 -0.08087865 0.0 -0.077347375 -0.063382834 0.0 -0.033983048 -0.09404867 0.0
-0.01014651 -0.09948391 0.0 -0.05678451 0.082313545 0.0 -0.012090637 0.099266395 0.0
-0.036951154 -0.09292262 0.0 -0.03282896 0.09445771 0.0 -0.05654818 0.08247608 0.0
-0.06763214 0.073660664 0.0 -0.0999832 -0.0018331924 0.0 -0.07780724 0.06281746 0.0
-0.098581634 0.016782755 0.0 0.056858685 0.08226233 0.0 -0.022475423 -0.09744155 0.0
-0.035301805 -0.09356165 0.0 0.0065192925 -0.099787265 0.0 0.045451317 0.08907401 0.0
-0.05016324 0.08650809 0.0 0.045317158 0.08914233 0.0 0.059980065 0.08001495 0.0
0.09500378 0.031213477 0.0 -0.09941559 -0.010795332 0.0 0.06660598 0.07458984 0.0
-0.015759164 -0.098750435 0.0 -0.027976895 -0.096006736 0.0 -0.020038819 0.09797166 0.0
-0.06385341 0.07695935 0.0 0.083763726 -0.05462269 0.0 -0.03306606 -0.09437498 0.0
0.06359597 -0.077172235 0.0 -0.087181784 0.048983034 0.0 -0.09511856 -0.03086195 0.0
0.041015934 -0.09120139 0.0 0.09943708 -0.010595667 0.0 0.060361754 -0.079727404 0.0
-0.056080442 -0.08279483 0.0 -0.0857859 0.05138851 0.0 0.07816453 -0.062372323 0.0
0.057250407 -0.08199019 0.0 -0.099651225 0.008344646 0.0 0.09985032 -0.0054693595 0.0
0.044235732 -0.08968389 0.0 0.08758933 -0.04825049 0.0 0.08089338 0.05878998 0.0
-0.07491018 0.066245496 0.0 -0.029170632 -0.09565079 0.0 0.099788986 0.00649305 0.0
0.026288614 -0.09648269 0.0 0.059263498 -0.08054712 0.0 0.0073496737 0.099729545 0.0
-0.016373953 0.09865036 0.0 -0.08480866 -0.052985765 0.0 -0.09478313 -0.03187724 0.0
0.09518931 -0.030643035 0.0 -0.099827826 0.0058656405 0.0 -0.045743436 -0.08892434 0.0
0.08601886 0.050997604 0.0 -0.09999428 0.0010696807 0.0 0.02870802 0.095790654 0.0
0.085795574 0.051372375 0.0 -0.070618205 0.07080304 0.0 0.022958376 0.097328894 0.0
0.098946 0.01448069 0.0 0.0050556394 0.09987212 0.0 -0.091939434 0.03933372 0.0
-0.056761164 -0.082329646 0.0 -0.08758866 -0.048251715 0.0 -0.070569694 0.070851386 0.0
-0.07197826 0.06941996 0.0 -0.09001356 0.04356097 0.0 -0.09484989 0.031678047 0.0
-0.09509606 0.03093122 0.0 0.062962696 0.07768977 0.0 0.010703208 0.099425554 0.0
-0.01508404 0.098855816 0.0 0.07273258 0.068629235 0.0 0.017678386 -0.09842497 0.0
0.062211532 -0.07829256 0.0 -0.052536517 -0.08508769 0.0 -0.09974514 0.007135 0.0
-0.078297324 -0.062205534 0.0 0.077151306 0.06362135 0.0 0.042642716 0.09045219 0.0
0.025426423 0.096713476 0.0 0.0929138 -0.03697332 0.0 -0.099104494 0.013352892 0.0
0.039298188 -0.09195462 0.0 -0.07113098 0.07028785 0.0 0.087739356 -0.04797713 0.0
0.09639064 0.026624138 0.0 -0.021943716 0.09756266 0.0 0.051727947 -0.08558165 0.0
-0.09720692 -0.02346945 0.0 0.098986976 0.014197818 0.0 0.022752576 0.0973772 0.0
-0.09303075 0.036678042 0.0 -0.09994566 0.003296502 0.0 0.06993642 0.07147655 0.0
0.082852565 0.055995114 0.0 -0.09354761 0.03533899 0.0 0.02455829 -0.09693756 0.0
-0.08872363 0.04613152 0.0 -0.023848731 -0.09711456 0.0 0.03311181 -0.094358936 0.0
0.09945836 0.010394049 0.0 0.0068903766 -0.099762335 0.0 0.052770462 0.0849428 0.0
-0.051295705 0.08584143 0.0 -0.053749736 0.08432655 0.0 -0.0822109 -0.056933016 0.0
-0.07542922 -0.06565388 0.0 -0.0952962 -0.030308997 0.0 0.07943007 0.06075248 0.0
0.09174635 0.039781984 0.0 0.07416118 0.067082934 0.0 0.06660547 0.07459029 0.0
0.073749356 0.06753542 0.0 -0.04813639 0.08765209 0.0 -0.028011847 -0.095996544 0.0
-0.08020388 0.0597272 0.0 4.492405E-4 0.099998996 0.0 -0.074226886 0.06701022 0.0
0.012320915 -0.099238075 0.0 -0.02995273 -0.095408775 0.0 -0.09696629 0.024444597 0.0
-0.030557593 0.09521677 0.0 0.09731738 -0.02300711 0.0 -0.090790205 -0.041918248 0.0
-0.09996348 -0.002702546 0.0 0.09986572 0.005180569 0.0 -0.099716276 0.007527565 0.0
-0.098744385 -0.015797086 0.0 -0.09958168 0.009137297 0.0 -0.067755796 0.07354694 0.0
-0.098667644 -0.016269526 0.0 0.084825866 -0.052958228 0.0 -0.09927654 -0.012007013 0.0
-0.07053765 -0.07088328 0.0 -0.018325029 0.09830663 0.0 0.062469363 0.078086995 0.0
-0.08401501 -0.054235388 0.0 -0.09999072 -0.0013624736 0.0 0.030091057 0.09536524 0.0
0.096455894 0.026386762 0.0 -0.0325126 0.094567075 0.0 0.0077752555 -0.09969727 0.0
-0.045750763 -0.08892057 0.0 7.466254E-4 0.099997215 0.0 -0.018162569 0.09833678 0.0
-0.09694517 0.024528245 0.0 -0.065438114 0.075616494 0.0 -0.081476875 -0.057978608 0.0
0.010575371 0.09943923 0.0 0.002106287 -0.09997781 0.0 -0.095170766 0.030700577 0.0
-0.057627123 0.08172585 0.0 -0.015040085 0.098862514 0.0 -0.013336115 -0.09910675 0.0
-0.091522686 -0.0402939 0.0 -0.08043099 0.059421003 0.0 -0.09735536 0.022845874 0.0
-0.09167635 -0.03994306 0.0 -0.03039707 0.09526814 0.0 0.09338487 0.03576683 0.0
0.07265257 -0.06871393 0.0 0.08062721 0.05915449 0.0 -0.012870287 0.09916832 0.0
-0.09794487 0.02016937 0.0 -0.028478105 0.09585926 0.0 0.058199015 0.081319585 0.0
0.086967826 -0.049361907 0.0 -0.066238485 0.074916385 0.0 -0.026777742 0.096348085 0.0
0.07801097 -0.062564276 0.0 -0.04042005 -0.091467045 0.0 -0.02992851 0.095416375 0.0
0.07060146 -0.07081973 0.0 0.019057944 -0.09816717 0.0 -0.027729748 -0.09607842 0.0
-0.086954944 -0.049384594 0.0 0.02258787 0.097415544 0.0 0.087915346 -0.04765388 0.0
0.099238455 0.012317824 0.0 -0.08251718 -0.056488194 0.0 0.099633455 0.008554235 0.0
-0.0029178744 -0.09995742 0.0 -0.08935701 -0.04489238 0.0 -0.059514415 -0.080361895 0.0
-0.08981392 -0.043971132 0.0 -0.057473768 0.08183377 0.0 -0.066224426 -0.074928805 0.0
0.055020846 0.08350273 0.0 -0.03299052 -0.09440141 0.0 -0.013342048 -0.099105954 0.0
0.05149591 -0.08572148 0.0 -0.0257314 0.096632786 0.0 -0.09988322 -0.004831292 0.0
-0.09465653 -0.032251228 0.0 -0.0954824 0.029717201 0.0 -0.099959396 -0.0028495488 0.0
0.050964396 0.08603854 0.0 0.08488482 0.052863665 0.0 0.079954125 0.060061123 0.0
0.06847199 0.07288064 0.0 0.038929693 0.09211123 0.0 -0.08244825 -0.056588747 0.0
-0.09788444 0.02046059 0.0 -0.071081586 -0.070337825 0.0 -0.095594674 0.029354021 0.0
-0.0873322 -0.04871435 0.0 -0.09998485 0.0017408625 0.0 -0.07363008 0.06766544 0.0
0.09693371 -0.02457351 0.0 -0.050513994 0.08630374 0.0 0.010217585 0.099476635 0.0
-0.008703643 -0.09962051 0.0 -0.07117235 -0.070245974 0.0 -0.07487801 0.066281855 0.0
0.020967035 -0.09777721 0.0 -0.04971342 0.08676737 0.0 -0.09283096 -0.037180804 0.0
-0.0999794 0.0020295973 0.0 -0.07480601 0.066363096 0.0 -0.026002768 -0.09656011 0.0
-0.08394149 -0.05434912 0.0 0.018827928 0.09821155 0.0 -0.021642864 -0.097629845 0.0
0.07059242 0.07082874 0.0 0.09394055 0.034280803 0.0 -0.09640055 0.02658824 0.0
0.055024292 -0.08350047 0.0 -0.014596062 0.09892904 0.0 -0.0021172126 -0.09997758 0.0
-0.09931561 -0.011679435 0.0 -0.061894424 0.07854349 0.0 -0.07732183 -0.063414 0.0
-0.0988718 -0.014978911 0.0 -0.09974908 -0.0070796343 0.0 -0.090998724 -0.04146363 0.0
0.02614904 -0.09652061 0.0 -0.09911701 -0.013259657 0.0 0.07940225 0.060788836 0.0
-0.033958144 0.09405767 0.0 -0.06661568 -0.074581176 0.0 0.02550124 -0.09669378 0.0
0.067595355 0.07369443 0.0 -0.09626443 -0.027076934 0.0 0.02260336 -0.09741195 0.0
-0.064433575 -0.07647427 0.0 -0.081059374 -0.05856089 0.0 -0.065793745 0.075307265 0.0
-5.0026603E-5 0.09999999 0.0 -0.079088494 0.061196495 0.0 -0.071934246 0.06946557 0.0
-0.07615359 0.06481228 0.0 -0.08635692 0.050423034 0.0 -0.09408561 -0.033880647 0.0
-0.020503394 -0.09787549 0.0 0.057584286 -0.08175604 0.0 -0.090977445 -0.041510295 0.0
-0.09342673 0.035657357 0.0 -0.0023458772 -0.09997248 0.0 0.09620144 -0.027299887 0.0
-0.095592014 -0.029362664 0.0 -0.0999853 -0.0017144401 0.0 0.045334056 -0.08913374 0.0
-0.07398705 0.067274936 0.0 -0.049803432 0.086715735 0.0 -0.02652835 -0.09641705 0.0
-0.095482975 0.029715339 0.0 -0.087175615 -0.048994005 0.0 0.086532265 0.050121527 0.0
0.012649982 -0.099196665 0.0 0.004623243 -0.09989307 0.0 -0.099731795 0.0073191705 0.0